BG={{colors.surface.default.hex_stripped}}
FG={{colors.on_surface.default.hex_stripped}}
SEL_BG={{colors.primary.default.hex_stripped}}
SEL_FG={{colors.on_primary.default.hex_stripped}}
ACCENT_BG={{colors.primary.default.hex_stripped}}
TXT_BG={{colors.surface_container.default.hex_stripped}}
TXT_FG={{colors.on_surface.default.hex_stripped}}
HDR_BG={{colors.surface_container_high.default.hex_stripped}}
HDR_FG={{colors.on_surface.default.hex_stripped}}
MENU_BG={{colors.surface_container_lowest.default.hex_stripped}}
MENU_FG={{colors.on_surface.default.hex_stripped}}
BTN_BG={{colors.surface_container_highest.default.hex_stripped}}
BTN_FG={{colors.on_surface.default.hex_stripped}}

# Forces Oomox to use dark-mode assets and logic
TERMINAL_THEME=dark
GTK3_GENERATE_DARK=1
